<?xml version="1.0" encoding="UTF-8"?>

<!-- generated on 2025-03-22 11:12:12 by Eclipse SUMO sumo Version 1.22.0
<sumoConfiguration xmlns:xsi="http://www.w3.org/2001/XMLSchema-instance" xsi:noNamespaceSchemaLocation="http://sumo.dlr.de/xsd/sumoConfiguration.xsd">

    <input>
        <net-file value="maps/rand_net.net.xml"/>
        <route-files value="maps/rand_route.rou.xml"/>
    </input>

    <output>
        <tripinfo-output value="tripinfo.xml"/>
    </output>

    <time>
        <begin value="0"/>
        <end value="200"/>
    </time>

    <report>
        <verbose value="true"/>
        <no-step-log value="true"/>
    </report>

    <traci_server>
        <remote-port value="55318"/>
    </traci_server>

</sumoConfiguration>
-->

<tripinfos xmlns:xsi="http://www.w3.org/2001/XMLSchema-instance" xsi:noNamespaceSchemaLocation="http://sumo.dlr.de/xsd/tripinfo_file.xsd">
    <tripinfo id="2" depart="2.00" departLane="1775_0" departPos="5.10" departSpeed="0.00" departDelay="0.00" arrival="55.00" arrivalLane="1769_0" arrivalPos="160.05" arrivalSpeed="13.66" duration="53.00" routeLength="619.93" waitingTime="0.00" waitingCount="0" stopTime="0.00" timeLoss="7.33" rerouteNo="0" devices="tripinfo_2" vType="DEFAULT_VEHTYPE" speedFactor="1.01" vaporized=""/>
    <tripinfo id="26" depart="26.00" departLane="-3_0" departPos="5.10" departSpeed="0.00" departDelay="0.00" arrival="75.00" arrivalLane="696_0" arrivalPos="106.76" arrivalSpeed="11.68" duration="49.00" routeLength="498.82" waitingTime="0.00" waitingCount="0" stopTime="0.00" timeLoss="7.83" rerouteNo="0" devices="tripinfo_26" vType="DEFAULT_VEHTYPE" speedFactor="0.92" vaporized=""/>
    <tripinfo id="28" depart="28.00" departLane="-15_0" departPos="5.10" departSpeed="0.00" departDelay="0.00" arrival="80.00" arrivalLane="3_0" arrivalPos="216.48" arrivalSpeed="15.06" duration="52.00" routeLength="581.84" waitingTime="1.00" waitingCount="1" stopTime="0.00" timeLoss="13.57" rerouteNo="0" devices="tripinfo_28" vType="DEFAULT_VEHTYPE" speedFactor="1.13" vaporized=""/>
    <tripinfo id="34" depart="34.00" departLane="-356_0" departPos="5.10" departSpeed="0.00" departDelay="0.00" arrival="80.00" arrivalLane="-348_0" arrivalPos="151.15" arrivalSpeed="13.22" duration="46.00" routeLength="482.33" waitingTime="0.00" waitingCount="0" stopTime="0.00" timeLoss="9.24" rerouteNo="0" devices="tripinfo_34" vType="DEFAULT_VEHTYPE" speedFactor="0.99" vaporized=""/>
    <tripinfo id="51" depart="51.00" departLane="15_0" departPos="5.10" departSpeed="0.00" departDelay="0.00" arrival="85.00" arrivalLane="13_0" arrivalPos="118.20" arrivalSpeed="16.17" duration="34.00" routeLength="398.56" waitingTime="0.00" waitingCount="0" stopTime="0.00" timeLoss="8.29" rerouteNo="0" devices="tripinfo_51" vType="DEFAULT_VEHTYPE" speedFactor="1.17" vaporized=""/>
    <tripinfo id="1" depart="1.00" departLane="-325_0" departPos="5.10" departSpeed="0.00" departDelay="0.00" arrival="89.00" arrivalLane="-25_0" arrivalPos="199.69" arrivalSpeed="12.04" duration="88.00" routeLength="969.30" waitingTime="0.00" waitingCount="0" stopTime="0.00" timeLoss="11.63" rerouteNo="0" devices="tripinfo_1" vType="DEFAULT_VEHTYPE" speedFactor="0.94" vaporized=""/>
    <tripinfo id="3" depart="3.00" departLane="592_0" departPos="5.10" departSpeed="0.00" departDelay="0.00" arrival="105.00" arrivalLane="-1359_0" arrivalPos="216.96" arrivalSpeed="14.33" duration="102.00" routeLength="1290.56" waitingTime="0.00" waitingCount="0" stopTime="0.00" timeLoss="14.15" rerouteNo="0" devices="tripinfo_3" vType="DEFAULT_VEHTYPE" speedFactor="1.08" vaporized=""/>
    <tripinfo id="19" depart="19.00" departLane="535_0" departPos="5.10" departSpeed="0.00" departDelay="0.00" arrival="109.00" arrivalLane="1391_0" arrivalPos="142.15" arrivalSpeed="15.16" duration="90.00" routeLength="1077.98" waitingTime="0.00" waitingCount="0" stopTime="0.00" timeLoss="20.98" rerouteNo="0" devices="tripinfo_19" vType="DEFAULT_VEHTYPE" speedFactor="1.16" vaporized=""/>
    <tripinfo id="17" depart="17.00" departLane="-577_0" departPos="5.10" departSpeed="0.00" departDelay="0.00" arrival="114.00" arrivalLane="1345_0" arrivalPos="189.09" arrivalSpeed="11.82" duration="97.00" routeLength="1029.35" waitingTime="0.00" waitingCount="0" stopTime="0.00" timeLoss="15.29" rerouteNo="0" devices="tripinfo_17" vType="DEFAULT_VEHTYPE" speedFactor="0.94" vaporized=""/>
    <tripinfo id="30" depart="30.00" departLane="880_0" departPos="5.10" departSpeed="0.00" departDelay="0.00" arrival="114.00" arrivalLane="1501_0" arrivalPos="132.38" arrivalSpeed="15.19" duration="84.00" routeLength="1109.55" waitingTime="0.00" waitingCount="0" stopTime="0.00" timeLoss="14.89" rerouteNo="0" devices="tripinfo_30" vType="DEFAULT_VEHTYPE" speedFactor="1.18" vaporized=""/>
    <tripinfo id="15" depart="15.00" departLane="349_0" departPos="5.10" departSpeed="0.00" departDelay="0.00" arrival="117.00" arrivalLane="3_0" arrivalPos="216.48" arrivalSpeed="12.73" duration="102.00" routeLength="1101.27" waitingTime="0.00" waitingCount="0" stopTime="0.00" timeLoss="13.58" rerouteNo="0" devices="tripinfo_15" vType="DEFAULT_VEHTYPE" speedFactor="0.93" vaporized=""/>
    <tripinfo id="4" depart="4.00" departLane="-614_0" departPos="5.10" departSpeed="0.00" departDelay="0.00" arrival="118.00" arrivalLane="-116_0" arrivalPos="148.72" arrivalSpeed="14.15" duration="114.00" routeLength="1316.18" waitingTime="0.00" waitingCount="0" stopTime="0.00" timeLoss="18.95" rerouteNo="0" devices="tripinfo_4" vType="DEFAULT_VEHTYPE" speedFactor="1.03" vaporized=""/>
    <tripinfo id="12" depart="12.00" departLane="698_0" departPos="5.10" departSpeed="0.00" departDelay="0.00" arrival="121.00" arrivalLane="-577_0" arrivalPos="194.88" arrivalSpeed="13.93" duration="109.00" routeLength="1297.52" waitingTime="0.00" waitingCount="0" stopTime="0.00" timeLoss="17.32" rerouteNo="0" devices="tripinfo_12" vType="DEFAULT_VEHTYPE" speedFactor="1.05" vaporized=""/>
    <tripinfo id="20" depart="20.00" departLane="1533_0" departPos="5.10" departSpeed="0.00" departDelay="0.00" arrival="121.00" arrivalLane="-123_0" arrivalPos="140.35" arrivalSpeed="8.26" duration="101.00" routeLength="1218.47" waitingTime="0.00" waitingCount="0" stopTime="0.00" timeLoss="13.58" rerouteNo="0" devices="tripinfo_20" vType="DEFAULT_VEHTYPE" speedFactor="1.02" vaporized=""/>
    <tripinfo id="40" depart="40.00" departLane="116_0" departPos="5.10" departSpeed="0.00" departDelay="0.00" arrival="121.00" arrivalLane="-338_0" arrivalPos="108.06" arrivalSpeed="13.34" duration="81.00" routeLength="884.58" waitingTime="0.00" waitingCount="0" stopTime="0.00" timeLoss="15.86" rerouteNo="0" devices="tripinfo_40" vType="DEFAULT_VEHTYPE" speedFactor="1.03" vaporized=""/>
    <tripinfo id="44" depart="44.00" departLane="-1357_0" departPos="5.10" departSpeed="0.00" departDelay="0.00" arrival="123.00" arrivalLane="-123_0" arrivalPos="140.35" arrivalSpeed="10.70" duration="79.00" routeLength="957.98" waitingTime="0.00" waitingCount="0" stopTime="0.00" timeLoss="11.60" rerouteNo="0" devices="tripinfo_44" vType="DEFAULT_VEHTYPE" speedFactor="1.04" vaporized=""/>
    <tripinfo id="64" depart="64.00" departLane="585_0" departPos="5.10" departSpeed="0.00" departDelay="0.00" arrival="127.00" arrivalLane="533_0" arrivalPos="115.20" arrivalSpeed="12.82" duration="63.00" routeLength="641.47" waitingTime="0.00" waitingCount="0" stopTime="0.00" timeLoss="11.72" rerouteNo="0" devices="tripinfo_64" vType="DEFAULT_VEHTYPE" speedFactor="0.94" vaporized=""/>
    <tripinfo id="37" depart="37.00" departLane="1429_0" departPos="5.10" departSpeed="0.00" departDelay="0.00" arrival="128.00" arrivalLane="-639_0" arrivalPos="185.86" arrivalSpeed="8.95" duration="91.00" routeLength="954.22" waitingTime="0.00" waitingCount="0" stopTime="0.00" timeLoss="30.63" rerouteNo="0" devices="tripinfo_37" vType="DEFAULT_VEHTYPE" speedFactor="1.18" vaporized=""/>
    <tripinfo id="55" depart="55.00" departLane="579_0" departPos="5.10" departSpeed="0.00" departDelay="0.00" arrival="130.00" arrivalLane="-344_0" arrivalPos="117.63" arrivalSpeed="13.47" duration="75.00" routeLength="836.28" waitingTime="0.00" waitingCount="0" stopTime="0.00" timeLoss="12.58" rerouteNo="0" devices="tripinfo_55" vType="DEFAULT_VEHTYPE" speedFactor="1.00" vaporized=""/>
    <tripinfo id="65" depart="69.00" departLane="-348_0" departPos="5.10" departSpeed="0.00" departDelay="4.00" arrival="132.00" arrivalLane="-128_0" arrivalPos="96.29" arrivalSpeed="11.34" duration="63.00" routeLength="568.87" waitingTime="0.00" waitingCount="0" stopTime="0.00" timeLoss="12.43" rerouteNo="0" devices="tripinfo_65" vType="DEFAULT_VEHTYPE" speedFactor="0.88" vaporized=""/>
    <tripinfo id="24" depart="24.00" departLane="1388_0" departPos="5.10" departSpeed="0.00" departDelay="0.00" arrival="136.00" arrivalLane="-601_0" arrivalPos="184.53" arrivalSpeed="10.56" duration="112.00" routeLength="986.90" waitingTime="0.00" waitingCount="0" stopTime="0.00" timeLoss="19.71" rerouteNo="0" devices="tripinfo_24" vType="DEFAULT_VEHTYPE" speedFactor="0.83" vaporized=""/>
    <tripinfo id="0" depart="0.00" departLane="1391_0" departPos="5.10" departSpeed="0.00" departDelay="0.00" arrival="139.00" arrivalLane="-11_0" arrivalPos="154.39" arrivalSpeed="14.45" duration="139.00" routeLength="1692.04" waitingTime="0.00" waitingCount="0" stopTime="0.00" timeLoss="21.81" rerouteNo="0" devices="tripinfo_0" vType="DEFAULT_VEHTYPE" speedFactor="1.06" vaporized=""/>
    <tripinfo id="8" depart="8.00" departLane="-1773_0" departPos="5.10" departSpeed="0.00" departDelay="0.00" arrival="140.00" arrivalLane="1415_0" arrivalPos="212.78" arrivalSpeed="12.37" duration="132.00" routeLength="1476.68" waitingTime="0.00" waitingCount="0" stopTime="0.00" timeLoss="17.63" rerouteNo="0" devices="tripinfo_8" vType="DEFAULT_VEHTYPE" speedFactor="0.94" vaporized=""/>
    <tripinfo id="47" depart="47.00" departLane="-126_0" departPos="5.10" departSpeed="0.00" departDelay="0.00" arrival="140.00" arrivalLane="-614_0" arrivalPos="106.66" arrivalSpeed="12.12" duration="93.00" routeLength="979.26" waitingTime="0.00" waitingCount="0" stopTime="0.00" timeLoss="13.05" rerouteNo="0" devices="tripinfo_47" vType="DEFAULT_VEHTYPE" speedFactor="0.90" vaporized=""/>
    <tripinfo id="14" depart="14.00" departLane="517_0" departPos="5.10" departSpeed="0.00" departDelay="0.00" arrival="141.00" arrivalLane="1431_0" arrivalPos="132.01" arrivalSpeed="12.72" duration="127.00" routeLength="1484.20" waitingTime="0.00" waitingCount="0" stopTime="0.00" timeLoss="16.46" rerouteNo="0" devices="tripinfo_14" vType="DEFAULT_VEHTYPE" speedFactor="0.99" vaporized=""/>
    <tripinfo id="63" depart="63.00" departLane="-1057_0" departPos="5.10" departSpeed="0.00" departDelay="0.00" arrival="141.00" arrivalLane="684_0" arrivalPos="118.82" arrivalSpeed="13.65" duration="78.00" routeLength="859.74" waitingTime="0.00" waitingCount="0" stopTime="0.00" timeLoss="13.80" rerouteNo="0" devices="tripinfo_63" vType="DEFAULT_VEHTYPE" speedFactor="0.99" vaporized=""/>
    <tripinfo id="27" depart="27.00" departLane="1425_0" departPos="5.10" departSpeed="0.00" departDelay="0.00" arrival="143.00" arrivalLane="1441_0" arrivalPos="183.92" arrivalSpeed="11.94" duration="116.00" routeLength="1248.69" waitingTime="0.00" waitingCount="0" stopTime="0.00" timeLoss="17.31" rerouteNo="0" devices="tripinfo_27" vType="DEFAULT_VEHTYPE" speedFactor="0.95" vaporized=""/>
    <tripinfo id="91" depart="91.00" departLane="870_0" departPos="5.10" departSpeed="0.00" departDelay="0.00" arrival="147.00" arrivalLane="-138_0" arrivalPos="198.75" arrivalSpeed="11.56" duration="56.00" routeLength="620.54" waitingTime="0.00" waitingCount="0" stopTime="0.00" timeLoss="5.29" rerouteNo="0" devices="tripinfo_91" vType="DEFAULT_VEHTYPE" speedFactor="0.89" vaporized=""/>
    <tripinfo id="54" depart="54.00" departLane="-650_0" departPos="5.10" departSpeed="0.00" departDelay="0.00" arrival="149.00" arrivalLane="730_0" arrivalPos="154.60" arrivalSpeed="13.18" duration="95.00" routeLength="1159.22" waitingTime="0.00" waitingCount="0" stopTime="0.00" timeLoss="10.27" rerouteNo="0" devices="tripinfo_54" vType="DEFAULT_VEHTYPE" speedFactor="1.00" vaporized=""/>
    <tripinfo id="42" depart="42.00" departLane="-592_0" departPos="5.10" departSpeed="0.00" departDelay="0.00" arrival="150.00" arrivalLane="-210_0" arrivalPos="126.83" arrivalSpeed="14.47" duration="108.00" routeLength="1374.84" waitingTime="0.00" waitingCount="0" stopTime="0.00" timeLoss="16.29" rerouteNo="0" devices="tripinfo_42" vType="DEFAULT_VEHTYPE" speedFactor="1.09" vaporized=""/>
    <tripinfo id="68" depart="68.00" departLane="-13_0" departPos="5.10" departSpeed="0.00" departDelay="0.00" arrival="151.00" arrivalLane="336_0" arrivalPos="91.73" arrivalSpeed="13.28" duration="83.00" routeLength="857.29" waitingTime="0.00" waitingCount="0" stopTime="0.00" timeLoss="20.99" rerouteNo="0" devices="tripinfo_68" vType="DEFAULT_VEHTYPE" speedFactor="1.04" vaporized=""/>
    <tripinfo id="89" depart="89.00" departLane="-614_0" departPos="5.10" departSpeed="0.00" departDelay="0.00" arrival="154.00" arrivalLane="1005_0" arrivalPos="123.61" arrivalSpeed="13.24" duration="65.00" routeLength="731.59" waitingTime="0.00" waitingCount="0" stopTime="0.00" timeLoss="11.77" rerouteNo="0" devices="tripinfo_89" vType="DEFAULT_VEHTYPE" speedFactor="1.02" vaporized=""/>
    <tripinfo id="70" depart="70.00" departLane="-698_0" departPos="5.10" departSpeed="0.00" departDelay="0.00" arrival="155.00" arrivalLane="1345_0" arrivalPos="189.09" arrivalSpeed="14.06" duration="85.00" routeLength="1013.53" waitingTime="0.00" waitingCount="0" stopTime="0.00" timeLoss="10.45" rerouteNo="0" devices="tripinfo_70" vType="DEFAULT_VEHTYPE" speedFactor="1.02" vaporized=""/>
    <tripinfo id="32" depart="32.00" departLane="504_0" departPos="5.10" departSpeed="0.00" departDelay="0.00" arrival="156.00" arrivalLane="349_0" arrivalPos="155.95" arrivalSpeed="13.26" duration="124.00" routeLength="1391.37" waitingTime="0.00" waitingCount="0" stopTime="0.00" timeLoss="21.86" rerouteNo="0" devices="tripinfo_32" vType="DEFAULT_VEHTYPE" speedFactor="1.01" vaporized=""/>
    <tripinfo id="43" depart="43.00" departLane="9_0" departPos="5.10" departSpeed="0.00" departDelay="0.00" arrival="159.00" arrivalLane="1199_0" arrivalPos="96.76" arrivalSpeed="13.44" duration="116.00" routeLength="1033.14" waitingTime="19.00" waitingCount="1" stopTime="0.00" timeLoss="42.61" rerouteNo="0" devices="tripinfo_43" vType="DEFAULT_VEHTYPE" speedFactor="1.04" vaporized=""/>
    <tripinfo id="18" depart="18.00" departLane="381_0" departPos="5.10" departSpeed="0.00" departDelay="0.00" arrival="160.00" arrivalLane="1483_0" arrivalPos="115.74" arrivalSpeed="11.90" duration="142.00" routeLength="1639.11" waitingTime="0.00" waitingCount="0" stopTime="0.00" timeLoss="13.69" rerouteNo="0" devices="tripinfo_18" vType="DEFAULT_VEHTYPE" speedFactor="0.94" vaporized=""/>
    <tripinfo id="75" depart="77.00" departLane="882_0" departPos="5.10" departSpeed="0.00" departDelay="2.00" arrival="160.00" arrivalLane="1524_0" arrivalPos="132.27" arrivalSpeed="12.66" duration="83.00" routeLength="952.68" waitingTime="0.00" waitingCount="0" stopTime="0.00" timeLoss="11.60" rerouteNo="0" devices="tripinfo_75" vType="DEFAULT_VEHTYPE" speedFactor="0.98" vaporized=""/>
    <tripinfo id="9" depart="9.00" departLane="356_0" departPos="5.10" departSpeed="0.00" departDelay="0.00" arrival="162.00" arrivalLane="-1011_0" arrivalPos="227.66" arrivalSpeed="11.20" duration="153.00" routeLength="1490.04" waitingTime="0.00" waitingCount="0" stopTime="0.00" timeLoss="21.98" rerouteNo="0" devices="tripinfo_9" vType="DEFAULT_VEHTYPE" speedFactor="0.86" vaporized=""/>
    <tripinfo id="126" depart="126.00" departLane="-1323_0" departPos="5.10" departSpeed="0.00" departDelay="0.00" arrival="162.00" arrivalLane="-882_0" arrivalPos="175.72" arrivalSpeed="13.05" duration="36.00" routeLength="407.05" waitingTime="0.00" waitingCount="0" stopTime="0.00" timeLoss="6.84" rerouteNo="0" devices="tripinfo_126" vType="DEFAULT_VEHTYPE" speedFactor="1.03" vaporized=""/>
    <tripinfo id="97" depart="97.00" departLane="-64_0" departPos="5.10" departSpeed="0.00" departDelay="0.00" arrival="163.00" arrivalLane="589_0" arrivalPos="217.70" arrivalSpeed="12.09" duration="66.00" routeLength="712.36" waitingTime="0.00" waitingCount="0" stopTime="0.00" timeLoss="7.98" rerouteNo="0" devices="tripinfo_97" vType="DEFAULT_VEHTYPE" speedFactor="0.91" vaporized=""/>
    <tripinfo id="39" depart="43.00" departLane="-3_0" departPos="5.10" departSpeed="0.00" departDelay="4.00" arrival="165.00" arrivalLane="-330_0" arrivalPos="203.07" arrivalSpeed="11.64" duration="122.00" routeLength="1129.13" waitingTime="10.00" waitingCount="1" stopTime="0.00" timeLoss="27.84" rerouteNo="0" devices="tripinfo_39" vType="DEFAULT_VEHTYPE" speedFactor="0.90" vaporized=""/>
    <tripinfo id="117" depart="117.00" departLane="-1797_0" departPos="5.10" departSpeed="0.00" departDelay="0.00" arrival="170.00" arrivalLane="-1429_0" arrivalPos="107.87" arrivalSpeed="9.97" duration="53.00" routeLength="514.89" waitingTime="3.00" waitingCount="1" stopTime="0.00" timeLoss="15.45" rerouteNo="0" devices="tripinfo_117" vType="DEFAULT_VEHTYPE" speedFactor="1.00" vaporized=""/>
    <tripinfo id="5" depart="5.00" departLane="-1773_0" departPos="5.10" departSpeed="0.00" departDelay="0.00" arrival="172.00" arrivalLane="119_0" arrivalPos="109.44" arrivalSpeed="10.83" duration="167.00" routeLength="1679.64" waitingTime="0.00" waitingCount="0" stopTime="0.00" timeLoss="17.97" rerouteNo="0" devices="tripinfo_5" vType="DEFAULT_VEHTYPE" speedFactor="0.83" vaporized=""/>
    <tripinfo id="76" depart="76.00" departLane="-625_0" departPos="5.10" departSpeed="0.00" departDelay="0.00" arrival="172.00" arrivalLane="121_0" arrivalPos="196.53" arrivalSpeed="13.51" duration="96.00" routeLength="1162.67" waitingTime="0.00" waitingCount="0" stopTime="0.00" timeLoss="12.17" rerouteNo="0" devices="tripinfo_76" vType="DEFAULT_VEHTYPE" speedFactor="1.03" vaporized=""/>
    <tripinfo id="60" depart="60.00" departLane="3_0" departPos="5.10" departSpeed="0.00" departDelay="0.00" arrival="173.00" arrivalLane="1323_0" arrivalPos="227.90" arrivalSpeed="14.97" duration="113.00" routeLength="1327.17" waitingTime="0.00" waitingCount="0" stopTime="0.00" timeLoss="21.73" rerouteNo="0" devices="tripinfo_60" vType="DEFAULT_VEHTYPE" speedFactor="1.08" vaporized=""/>
    <tripinfo id="13" depart="13.00" departLane="-1359_0" departPos="5.10" departSpeed="0.00" departDelay="0.00" arrival="174.00" arrivalLane="-138_0" arrivalPos="198.75" arrivalSpeed="14.99" duration="161.00" routeLength="2080.45" waitingTime="0.00" waitingCount="0" stopTime="0.00" timeLoss="23.88" rerouteNo="0" devices="tripinfo_13" vType="DEFAULT_VEHTYPE" speedFactor="1.12" vaporized=""/>
    <tripinfo id="16" depart="16.00" departLane="1005_0" departPos="5.10" departSpeed="0.00" departDelay="0.00" arrival="174.00" arrivalLane="846_0" arrivalPos="117.30" arrivalSpeed="11.89" duration="158.00" routeLength="1695.85" waitingTime="0.00" waitingCount="0" stopTime="0.00" timeLoss="15.66" rerouteNo="0" devices="tripinfo_16" vType="DEFAULT_VEHTYPE" speedFactor="0.88" vaporized=""/>
    <tripinfo id="49" depart="49.00" departLane="732_0" departPos="5.10" departSpeed="0.00" departDelay="0.00" arrival="174.00" arrivalLane="589_0" arrivalPos="217.70" arrivalSpeed="11.16" duration="125.00" routeLength="981.03" waitingTime="23.00" waitingCount="1" stopTime="0.00" timeLoss="39.44" rerouteNo="0" devices="tripinfo_49" vType="DEFAULT_VEHTYPE" speedFactor="0.85" vaporized=""/>
    <tripinfo id="57" depart="57.00" departLane="614_0" departPos="5.10" departSpeed="0.00" departDelay="0.00" arrival="175.00" arrivalLane="601_0" arrivalPos="184.53" arrivalSpeed="15.75" duration="118.00" routeLength="1538.87" waitingTime="0.00" waitingCount="0" stopTime="0.00" timeLoss="17.84" rerouteNo="0" devices="tripinfo_57" vType="DEFAULT_VEHTYPE" speedFactor="1.14" vaporized=""/>
    <tripinfo id="118" depart="118.00" departLane="592_0" departPos="5.10" departSpeed="0.00" departDelay="0.00" arrival="178.00" arrivalLane="-330_0" arrivalPos="203.07" arrivalSpeed="12.92" duration="60.00" routeLength="642.02" waitingTime="0.00" waitingCount="0" stopTime="0.00" timeLoss="11.17" rerouteNo="0" devices="tripinfo_118" vType="DEFAULT_VEHTYPE" speedFactor="0.99" vaporized=""/>
    <tripinfo id="66" depart="67.00" departLane="585_0" departPos="5.10" departSpeed="0.00" departDelay="1.00" arrival="179.00" arrivalLane="728_0" arrivalPos="111.01" arrivalSpeed="12.52" duration="112.00" routeLength="1152.05" waitingTime="0.00" waitingCount="0" stopTime="0.00" timeLoss="18.28" rerouteNo="0" devices="tripinfo_66" vType="DEFAULT_VEHTYPE" speedFactor="0.91" vaporized=""/>
    <tripinfo id="137" depart="137.00" departLane="-1429_0" departPos="5.10" departSpeed="0.00" departDelay="0.00" arrival="179.00" arrivalLane="-1427_0" arrivalPos="164.55" arrivalSpeed="13.18" duration="42.00" routeLength="449.96" waitingTime="0.00" waitingCount="0" stopTime="0.00" timeLoss="8.84" rerouteNo="0" devices="tripinfo_137" vType="DEFAULT_VEHTYPE" speedFactor="1.02" vaporized=""/>
    <tripinfo id="84" depart="84.00" departLane="-1771_0" departPos="5.10" departSpeed="0.00" departDelay="0.00" arrival="180.00" arrivalLane="-1447_0" arrivalPos="216.20" arrivalSpeed="15.71" duration="96.00" routeLength="1220.67" waitingTime="0.00" waitingCount="0" stopTime="0.00" timeLoss="16.55" rerouteNo="0" devices="tripinfo_84" vType="DEFAULT_VEHTYPE" speedFactor="1.15" vaporized=""/>
    <tripinfo id="73" depart="74.00" departLane="1011_0" departPos="5.10" departSpeed="0.00" departDelay="1.00" arrival="186.00" arrivalLane="3_0" arrivalPos="216.48" arrivalSpeed="14.46" duration="112.00" routeLength="1267.77" waitingTime="0.00" waitingCount="0" stopTime="0.00" timeLoss="22.50" rerouteNo="0" devices="tripinfo_73" vType="DEFAULT_VEHTYPE" speedFactor="1.06" vaporized=""/>
    <tripinfo id="36" depart="36.00" departLane="579_0" departPos="5.10" departSpeed="0.00" departDelay="0.00" arrival="187.00" arrivalLane="-517_0" arrivalPos="167.00" arrivalSpeed="12.94" duration="151.00" routeLength="1775.86" waitingTime="0.00" waitingCount="0" stopTime="0.00" timeLoss="16.60" rerouteNo="0" devices="tripinfo_36" vType="DEFAULT_VEHTYPE" speedFactor="0.97" vaporized=""/>
    <tripinfo id="74" depart="74.00" departLane="-1535_0" departPos="5.10" departSpeed="0.00" departDelay="0.00" arrival="187.00" arrivalLane="-505_0" arrivalPos="178.79" arrivalSpeed="12.15" duration="113.00" routeLength="1269.17" waitingTime="0.00" waitingCount="0" stopTime="0.00" timeLoss="14.23" rerouteNo="0" devices="tripinfo_74" vType="DEFAULT_VEHTYPE" speedFactor="0.96" vaporized=""/>
    <tripinfo id="45" depart="46.00" departLane="-1388_0" departPos="5.10" departSpeed="0.00" departDelay="1.00" arrival="192.00" arrivalLane="1494_0" arrivalPos="203.65" arrivalSpeed="14.83" duration="146.00" routeLength="1868.53" waitingTime="0.00" waitingCount="0" stopTime="0.00" timeLoss="21.83" rerouteNo="0" devices="tripinfo_45" vType="DEFAULT_VEHTYPE" speedFactor="1.09" vaporized=""/>
    <tripinfo id="142" depart="142.00" departLane="-730_0" departPos="5.10" departSpeed="0.00" departDelay="0.00" arrival="193.00" arrivalLane="639_0" arrivalPos="185.86" arrivalSpeed="12.14" duration="51.00" routeLength="532.63" waitingTime="0.00" waitingCount="0" stopTime="0.00" timeLoss="7.74" rerouteNo="0" devices="tripinfo_142" vType="DEFAULT_VEHTYPE" speedFactor="0.94" vaporized=""/>
    <tripinfo id="58" depart="58.00" departLane="-338_0" departPos="5.10" departSpeed="0.00" departDelay="0.00" arrival="197.00" arrivalLane="1501_0" arrivalPos="132.38" arrivalSpeed="13.66" duration="139.00" routeLength="1697.64" waitingTime="0.00" waitingCount="0" stopTime="0.00" timeLoss="16.63" rerouteNo="0" devices="tripinfo_58" vType="DEFAULT_VEHTYPE" speedFactor="1.02" vaporized=""/>
    <tripinfo id="46" depart="46.00" departLane="336_0" departPos="5.10" departSpeed="0.00" departDelay="0.00" arrival="199.00" arrivalLane="-698_0" arrivalPos="128.04" arrivalSpeed="13.37" duration="153.00" routeLength="1640.91" waitingTime="0.00" waitingCount="0" stopTime="0.00" timeLoss="29.52" rerouteNo="0" devices="tripinfo_46" vType="DEFAULT_VEHTYPE" speedFactor="1.00" vaporized=""/>
    <tripinfo id="50" depart="50.00" departLane="-1029_0" departPos="5.10" departSpeed="0.00" departDelay="0.00" arrival="199.00" arrivalLane="19_0" arrivalPos="177.72" arrivalSpeed="8.39" duration="149.00" routeLength="863.69" waitingTime="48.00" waitingCount="4" stopTime="0.00" timeLoss="75.75" rerouteNo="0" devices="tripinfo_50" vType="DEFAULT_VEHTYPE" speedFactor="0.85" vaporized=""/>
    <tripinfo id="77" depart="77.00" departLane="-1404_0" departPos="5.10" departSpeed="0.00" departDelay="0.00" arrival="201.00" arrivalLane="-25_0" arrivalPos="199.69" arrivalSpeed="13.01" duration="124.00" routeLength="1461.34" waitingTime="0.00" waitingCount="0" stopTime="0.00" timeLoss="13.69" rerouteNo="0" devices="tripinfo_77" vType="DEFAULT_VEHTYPE" speedFactor="0.98" vaporized=""/>
    <tripinfo id="141" depart="141.00" departLane="1388_0" departPos="5.10" departSpeed="0.00" departDelay="0.00" arrival="201.00" arrivalLane="-344_0" arrivalPos="117.63" arrivalSpeed="15.67" duration="60.00" routeLength="770.56" waitingTime="0.00" waitingCount="0" stopTime="0.00" timeLoss="11.10" rerouteNo="0" devices="tripinfo_141" vType="DEFAULT_VEHTYPE" speedFactor="1.16" vaporized=""/>
    <tripinfo id="95" depart="95.00" departLane="-614_0" departPos="5.10" departSpeed="0.00" departDelay="0.00" arrival="202.00" arrivalLane="-356_0" arrivalPos="160.29" arrivalSpeed="5.72" duration="107.00" routeLength="1093.15" waitingTime="0.00" waitingCount="0" stopTime="0.00" timeLoss="28.67" rerouteNo="0" devices="tripinfo_95" vType="DEFAULT_VEHTYPE" speedFactor="1.06" vaporized=""/>
    <tripinfo id="130" depart="130.00" departLane="585_0" departPos="5.10" departSpeed="0.00" departDelay="0.00" arrival="202.00" arrivalLane="612_0" arrivalPos="179.18" arrivalSpeed="13.58" duration="72.00" routeLength="863.58" waitingTime="0.00" waitingCount="0" stopTime="0.00" timeLoss="11.11" rerouteNo="0" devices="tripinfo_130" vType="DEFAULT_VEHTYPE" speedFactor="1.03" vaporized=""/>
    <tripinfo id="11" depart="11.00" departLane="-492_0" departPos="5.10" departSpeed="0.00" departDelay="0.00" arrival="206.00" arrivalLane="-1517_0" arrivalPos="161.73" arrivalSpeed="13.31" duration="195.00" routeLength="2403.50" waitingTime="0.00" waitingCount="0" stopTime="0.00" timeLoss="23.67" rerouteNo="0" devices="tripinfo_11" vType="DEFAULT_VEHTYPE" speedFactor="1.03" vaporized=""/>
    <tripinfo id="56" depart="56.00" departLane="-840_0" departPos="5.10" departSpeed="0.00" departDelay="0.00" arrival="206.00" arrivalLane="-17_0" arrivalPos="208.68" arrivalSpeed="11.59" duration="150.00" routeLength="1366.94" waitingTime="22.00" waitingCount="1" stopTime="0.00" timeLoss="39.92" rerouteNo="0" devices="tripinfo_56" vType="DEFAULT_VEHTYPE" speedFactor="0.90" vaporized=""/>
    <tripinfo id="10" depart="10.00" departLane="349_0" departPos="5.10" departSpeed="0.00" departDelay="0.00" arrival="207.00" arrivalLane="1783_0" arrivalPos="221.04" arrivalSpeed="14.54" duration="197.00" routeLength="2493.20" waitingTime="2.00" waitingCount="1" stopTime="0.00" timeLoss="29.64" rerouteNo="0" devices="tripinfo_10" vType="DEFAULT_VEHTYPE" speedFactor="1.09" vaporized=""/>
    <tripinfo id="152" depart="152.00" departLane="-1447_0" departPos="5.10" departSpeed="0.00" departDelay="0.00" arrival="207.00" arrivalLane="-1441_0" arrivalPos="183.92" arrivalSpeed="14.14" duration="55.00" routeLength="602.82" waitingTime="0.00" waitingCount="0" stopTime="0.00" timeLoss="11.17" rerouteNo="0" devices="tripinfo_152" vType="DEFAULT_VEHTYPE" speedFactor="1.07" vaporized=""/>
    <tripinfo id="154" depart="154.00" departLane="338_0" departPos="5.10" departSpeed="0.00" departDelay="0.00" arrival="207.00" arrivalLane="589_0" arrivalPos="217.70" arrivalSpeed="14.16" duration="53.00" routeLength="639.06" waitingTime="0.00" waitingCount="0" stopTime="0.00" timeLoss="8.48" rerouteNo="0" devices="tripinfo_154" vType="DEFAULT_VEHTYPE" speedFactor="1.06" vaporized=""/>
    <tripinfo id="125" depart="125.00" departLane="-356_0" departPos="5.10" departSpeed="0.00" departDelay="0.00" arrival="208.00" arrivalLane="330_0" arrivalPos="203.07" arrivalSpeed="15.14" duration="83.00" routeLength="1086.73" waitingTime="0.00" waitingCount="0" stopTime="0.00" timeLoss="12.98" rerouteNo="0" devices="tripinfo_125" vType="DEFAULT_VEHTYPE" speedFactor="1.15" vaporized=""/>
    <tripinfo id="62" depart="62.00" departLane="-1005_0" departPos="5.10" departSpeed="0.00" departDelay="0.00" arrival="209.00" arrivalLane="-533_0" arrivalPos="115.20" arrivalSpeed="13.49" duration="147.00" routeLength="1741.76" waitingTime="0.00" waitingCount="0" stopTime="0.00" timeLoss="20.72" rerouteNo="0" devices="tripinfo_62" vType="DEFAULT_VEHTYPE" speedFactor="1.02" vaporized=""/>
    <tripinfo id="78" depart="78.00" departLane="-383_0" departPos="5.10" departSpeed="0.00" departDelay="0.00" arrival="210.00" arrivalLane="1415_0" arrivalPos="212.78" arrivalSpeed="12.79" duration="132.00" routeLength="1586.88" waitingTime="0.00" waitingCount="0" stopTime="0.00" timeLoss="16.88" rerouteNo="0" devices="tripinfo_78" vType="DEFAULT_VEHTYPE" speedFactor="1.01" vaporized=""/>